/*--------------------------------*- C++ -*----------------------------------*\
| =========                 |                                                 |
| \\      /  F ield         | OpenFOAM: The Open Source CFD Toolbox           |
|  \\    /   O peration     | Version:  1.7.1                                 |
|   \\  /    A nd           | Web:      www.OpenFOAM.com                      |
|    \\/     M anipulation  |                                                 |
\*---------------------------------------------------------------------------*/
FoamFile
{
    version     2.0;
    format      ascii;
    class       volScalarField;
    object      nuTilda;
}
// * * * * * * * * * * * * * * * * * * * * * * * * * * * * * * * * * * * * * //

#include        "conditions"

dimensions      [0 2 -1 0 0 0 0];

internalField   uniform $turbulentNuTilda;

boundaryField
{
    inlet
    {
        type            fixedValue;
        value		uniform $turbulentNuTilda;
    }

    outlet
    {
        type            zeroGradient;
    }
    plane1
    {
        type            symmetryPlane;
    }
    plane2
    {
        type            symmetryPlane;
    }
    
    wing
    {
        type            fixedValue;
        value           uniform 0;
    }

    fan01 
    {
        type            cyclic;
    }

    fan02 
    {
        type            cyclic;
    }
}

// ************************************************************************* //
