/*--------------------------------*- C++ -*----------------------------------*\
| =========                 |                                                 |
| \\      /  F ield         | OpenFOAM: The Open Source CFD Toolbox           |
|  \\    /   O peration     | Version:  2.3.0                                 |
|   \\  /    A nd           | Web:      www.OpenFOAM.org                      |
|    \\/     M anipulation  |                                                 |
\*---------------------------------------------------------------------------*/
FoamFile
{
    version     2.0;
    format      ascii;
    class       volScalarField;
    object      omega;
}
// * * * * * * * * * * * * * * * * * * * * * * * * * * * * * * * * * * * * * //

#include        "conditions"

dimensions      [0 0 -1 0 0 0 0];

internalField   uniform $turbulentOmega;

boundaryField
{
    inlet
    {
        type            fixedValue;
        value           uniform $turbulentOmega;
    }

    outlet
    {
        type            zeroGradient;
    }

    plane1
    {
        type            symmetryPlane;
    }
    plane2
    {
        type            symmetryPlane;
    }


    wing
    {
        type            omegaWallFunction;
        value           uniform 0;
    }

    fan01 
    {
        type            cyclic;
    }

    fan02 
    {
        type            cyclic;
    }

}


// ************************************************************************* //
